	% Model:              3d sliding wall - oCTB - Hyun 50.mph
% Version:            COMSOL 4.3.1.110
% Date:               Apr 5 2017, 16:28
% Dimension:          3
% Nodes:              2
% Expressions:        19
% Description:        radius of rotating wall, non-rotating wall, rotations per min, Cell Reynolds number, Pressure, Shear rate, Velocity field, x component, Velocity field, y component, Velocity field, z component, Velocity magnitude, Volume force, x component, Volume force, y component, Volume force, z component, Vorticity field, x component, Vorticity field, y component, Vorticity field, z component, Vorticity magnitude, Volume scale factor, 
% Length unit:        m
% x                       y                        z                        wrad (m) @ t=1           stabrad (m) @ t=1        rotPM @ t=1              spf2.cellRe (1) @ t=1    p2 (Pa) @ t=1            spf2.sr (1/s) @ t=1      u2 (m/s) @ t=1           v2 (m/s) @ t=1           w2 (m/s) @ t=1           spf2.U (m/s) @ t=1       spf2.Fx (N/m^3) @ t=1    spf2.Fy (N/m^3) @ t=1    spf2.Fz (N/m^3) @ t=1    spf2.vorticityx (1/s) @ t=1 spf2.vorticityy (1/s) @ t=1 spf2.vorticityz (1/s) @ t=1 spf2.vort_magn (1/s) @ t=1 dvol @ t=1               meshtype @ t=1
% x                       y                        z                        wrad (m) @ t=1           stabrad (m) @ t=1        rotPM @ t=1              spf2.cellRe (1) @ t=1    p2 (Pa) @ t=1            spf2.sr (1/s) @ t=1      u2 (m/s) @ t=1           v2 (m/s) @ t=1           w2 (m/s) @ t=1           spf2.U (m/s) @ t=1       spf2.Fx (N/m^3) @ t=1    spf2.Fy (N/m^3) @ t=1    spf2.Fz (N/m^3) @ t=1    spf2.vorticityx (1/s) @ t=1 spf2.vorticityy (1/s) @ t=1 spf2.vorticityz (1/s) @ t=1 spf2.vort_magn (1/s) @ t=1 dvol @ t=1               meshtype @ t=1
-0.062020188869608826     -0.04527830405648139     0.3811814031724853       0.085                    0.069                    50                       306.56564307293024       -0.8318543549761908      19.141231727914892       0.006104729279668727     0.07524693877601407      -0.00998911740312194     0.07615216333915018      0                        0                        0                        -2.038977413790514       -2.031171348230129       32.92865754938177        33.054191473159285       1.041305474264284E-6     6
-0.06044761846923774      -0.04945038234070192     0.38451973438310466      0.085                    0.069                    50                       365.78191023818334       3.636724618948003        15.623063578131362       0.03484835563330384      0.08325418280255273      -0.010496980175507504    0.09086172702117809      0                        0                        0                        -2.9209623684684773      -3.92964319741698        25.64852793924031        26.111704315632203       6.546289085403959E-7     6