% Model:              sbr 25.mph
% Version:            COMSOL 4.3.1.110
% Date:               Sep 22 2017, 14:31
% Dimension:          3
% Nodes:              3
% Expressions:        25
% Description:        Time, Turbulent dissipation rate, Turbulent dynamic viscosity, Turbulent kinematic viscosity, Turbulent kinetic energy, Velocity field, liquid phase, x component, Velocity field, liquid phase, y component, Velocity field, liquid phase, z component, Velocity magnitude, liquid phase, Volume force, x component, Volume force, y component, Volume force, z component, Mesh element size, Mesh quality, Volume scale factor, , , , , , , , , , 
% Length unit:        m
% x                       y                        z                        t (s) @ t=10             ep (m^2/s^3) @ t=10      bf.muT (Pa*s) @ t=10     bf.nuT (m^2/s) @ t=10    k (m^2/s^2) @ t=10       u (m/s) @ t=10           v (m/s) @ t=10           w (m/s) @ t=10           bf.Ul (m/s) @ t=10       bf.Fx (N/m^3) @ t=10     bf.Fy (N/m^3) @ t=10     bf.Fz (N/m^3) @ t=10     h (m) @ t=10             qual @ t=10              dvol @ t=10              meshtype @ t=10          ux (1/s) @ t=10          uy (1/s) @ t=10          uz (1/s) @ t=10          vx (1/s) @ t=10          vy (1/s) @ t=10          vz (1/s) @ t=10          wx (1/s) @ t=10          wy (1/s) @ t=10          wz (1/s) @ t=10
-0.021332980724625635     -0.09025898599043217     0.0900812804411232       10                       2.5461235175381445E-13   0.0036199753575563132    3.6213692763472845E-6    3.965792866541467E-9     1.3357866727696462E-7    -3.0202787608302875E-7   -5.054923290542502E-7    6.038100636917257E-7     0                        0                        0                        0.005354030816729921     0.44956505904544647      2.9424995035747635E-8    6                        -7.873480208101022E-5    -1.1473188679134563E-4   4.472583032711258E-5     -7.479571364768416E-5    -2.792209122774987E-4    -5.7393348394933844E-5   -1.600792842195131E-4    2.671636826521802E-4     2.628655838382265E-4
-0.04240546573633836      -0.08229385672663668     0.09002078818093459      10                       6.762610770835679E-13    0.009230319789050697     9.233874044240245E-6     1.0073774795001621E-8    2.9893852291276804E-7    -4.79539622739137E-7     -3.759225584726314E-7    6.787048402852822E-7     0                        0                        0                        0.005933509982695531     0.35765258181008386      3.098182880373488E-8     6                        -3.2906571336241E-5      -1.3452254864114248E-6   -2.441177512471994E-5    -3.5171230814369563E-6   -2.0658042106247475E-4   1.039210558880778E-5     1.406054786401682E-4     2.0260233212481693E-4    2.2933285572236922E-4
-0.02580795355427537      -0.08904590233224817     0.09012947505452924      10                       3.525014065379848E-14    0.007119761171754691     7.122502728783199E-6     5.993625368800111E-9     2.508622608110947E-7     -2.8516679858553205E-7   -2.453722405513345E-7    4.521719953158942E-7     0                        0                        0                        0.0051936689890776586    0.45921909831222013      2.9429891451876716E-8    6                        6.146133028453204E-7     -7.354451322429711E-5    -5.224107530864092E-5    -5.051005557007088E-5    -1.5117575473737462E-4   -8.53660040525862E-5     -4.0183748350956925E-5   2.3238396641662925E-4    1.6612501363280437E-4