% Model:              3d sliding wall - oCTB - Hyun 50.mph
% Version:            COMSOL 4.3.1.110
% Date:               Apr 5 2017, 16:02
% Dimension:          3
% Nodes:              1
% Expressions:        38
% Description:        radius of rotating wall, non-rotating wall, rotations per min, Cell Reynolds number, Pressure, Shear rate, Velocity field, x component, Velocity field, y component, Velocity field, z component, Velocity magnitude, Volume force, x component, Volume force, y component, Volume force, z component, Vorticity field, x component, Vorticity field, y component, Vorticity field, z component, Vorticity magnitude, Volume scale factor, 
% Length unit:        m
% x                       y                        z                       wrad (m) @ t=0.1         stabrad (m) @ t=0.1      rotPM @ t=0.1            spf2.cellRe (1) @ t=0.1  p2 (Pa) @ t=0.1          spf2.sr (1/s) @ t=0.1    u2 (m/s) @ t=0.1         v2 (m/s) @ t=0.1         w2 (m/s) @ t=0.1         spf2.U (m/s) @ t=0.1     spf2.Fx (N/m^3) @ t=0.1  spf2.Fy (N/m^3) @ t=0.1  spf2.Fz (N/m^3) @ t=0.1  spf2.vorticityx (1/s) @ t=0.1 spf2.vorticityy (1/s) @ t=0.1 spf2.vorticityz (1/s) @ t=0.1 spf2.vort_magn (1/s) @ t=0.1 dvol @ t=0.1             meshtype @ t=0.1         wrad (m) @ t=0.2         stabrad (m) @ t=0.2      rotPM @ t=0.2            spf2.cellRe (1) @ t=0.2  p2 (Pa) @ t=0.2          spf2.sr (1/s) @ t=0.2    u2 (m/s) @ t=0.2         v2 (m/s) @ t=0.2         w2 (m/s) @ t=0.2         spf2.U (m/s) @ t=0.2     spf2.Fx (N/m^3) @ t=0.2  spf2.Fy (N/m^3) @ t=0.2  spf2.Fz (N/m^3) @ t=0.2  spf2.vorticityx (1/s) @ t=0.2 spf2.vorticityy (1/s) @ t=0.2 spf2.vorticityz (1/s) @ t=0.2 spf2.vort_magn (1/s) @ t=0.2 dvol @ t=0.2             meshtype @ t=0.2
-0.062020188869608826     -0.04527830405648139     0.3811814031724853       0.085                    0.069                    50                       4.190910542559847        197.89023069168644       0.5659609530158798       -7.265769805226552E-4    2.696006290227328E-4     -6.951002544833478E-4    0.0010410393708105794    0                        0                        0                        -0.21046726227693788     0.22383376843360345      0.02385235134879951      0.30816709598268915      1.041305474264284E-6     6                        0.085                    0.069                    50                       176.5420152479201        7.466784303760324        3.595689950716958        -0.01718649457886343     0.040304905485596905     -0.0018142035036740408   0.043853760801839385     0                        0                        0                        0.4261133618403119       0.0066920759742745695    2.3518472744006402       2.3901470630748682       1.041305474264284E-6     6